                              Psi4 0.2.278 Driver

  ==> Input File <==

--------------------------------------------------------------------------

# PYTHONPATH must include directory above plugin directory.
#     Define either externally or here, then import plugin.
sys.path.insert(0, './..')
import scf_pc

memory 2 GB

molecule water {
symmetry c1
0 1
 O          0.000000000000     0.000000000000    -0.066770073122
 H          0.000000000000    -0.764083917806     0.529844757149
 H         -0.000000000000     0.764083917806     0.529844757149
}

set scf_pc {
    pointcharges_file = 'pointcharges.dat'
}

set {
    basis 6-31G(d)
    maxiter 100
    SCF_TYPE DF
    D_CONVERGENCE 8
    E_CONVERGENCE 6
}

energy('scf')

#energy('scf_pc')
psi4.plugin('scf_pc.so')

--------------------------------------------------------------------------

    Molecular point group: c1
  Charge       = 0
  Multiplicity = 1
  Basis Set: 6-31G(D)
  Basis Set:
  @DF-RHF Final Energy:   -76.00971190060207
    Total Energy =                        -76.0097119006020989
    Molecular point group: c1

    Geometry (in Angstrom), charge = 0, multiplicity = 1:

       Center              X                  Y                   Z
    ------------   -----------------  -----------------  -----------------
           O          0.000000000000     0.000000000000    -0.066770073122
           H          0.000000000000    -0.764083917806     0.529844757149
           H          0.000000000000     0.764083917806     0.529844757149

  Charge       = 0
  Multiplicity = 1
  Basis Set: 6-31G(D)
  Basis Set:

    Orbital Energies (a.u.)
    -----------------------

    Doubly Occupied:

       1A    -20.785649     2A     -1.639288     3A     -0.943409
       4A     -0.839929     5A     -0.729043

  @DF-RHF Final Energy:   -74.39689635196353

   => Energetics <=

    Nuclear Repulsion Energy =             12.1752262654277459
    One-Electron Energy =                -123.2696122536797105
    Two-Electron Energy =                  36.6974896362883953
    DFT Exchange-Correlation Energy =       0.0000000000000000
    Empirical Dispersion Energy =           0.0000000000000000
    PCM Polarization Energy =               0.0000000000000000
    EFP Energy =                            0.0000000000000000
    Total Energy =                        -74.3968963519635622
